3
Properties=species:S:1:pos:R:3:forces:R:3 energy=0.00044293588295414013 pbc="F F F"
O       -0.01900154       0.07583356       0.28849812      -0.00308428      -0.02000032      -0.00673646
H        0.26235587       0.55255598      -0.52388025       0.00380217       0.00321611      -0.01439379
H        0.05664567      -0.42838954      -0.59944987      -0.00071789       0.01678422       0.02113026
