30
Properties=species:S:1:pos:R:3 Generated=T by=T autodE=T on:=T 2022-05-28.=T E=-780.008311 Ha.=T Imaginary=T frequency=-431.3 cm-1=T charge=0 spin=1 pbc="F F F"
C        2.55363594       0.37227800      -1.66381525
C        2.34126097      -0.37767990      -0.54109446
O        2.63355823      -1.60708067      -0.38108282
C        1.69978306       0.10140399       0.87510614
C        1.98047544      -0.35807843       2.08520384
N        1.29533296       1.42879763       0.64141190
N        0.30870994       2.08413240       0.53011683
C       -1.29493649       0.91868420       0.51893992
C       -1.99811470       1.26448873       1.63269979
C       -1.71667345       1.08258333      -1.00001095
C       -2.79223619       0.17836465      -1.34172417
C       -2.24311520      -0.91060784      -1.49730753
C       -0.84199046      -0.66125691      -1.25438973
O       -0.70869386       0.56708670      -1.70348127
C       -0.63011520      -0.40585337       0.19299459
C       -0.67040826      -1.46109437       1.19931708
N       -0.70196004      -2.34344726       1.97237459
H        2.90790834      -0.26010287      -2.43974845
H        1.61889393       0.85419934      -1.93408184
H        3.27729861       1.12657460      -1.42653251
H        2.96187808      -0.08619854       2.33897409
H        1.28787604       0.01903968       2.77004905
H        1.91174761      -1.41630423       2.01219771
H       -2.95854949       0.83391745       1.57608708
H       -1.50098994       0.92596950       2.49680127
H       -2.07397023       2.30970103       1.62670727
H       -1.83704902       2.12920375      -1.21140342
H       -3.87489635       0.43101860      -1.35761061
H       -2.69710223      -1.90916959      -1.68916671
H       -0.10943801      -1.30241958      -1.68929145
30
Properties=species:S:1:pos:R:3 Generated=T by=T autodE=T on:=T 2022-05-28.=T E=-780.008311 Ha.=T Imaginary=T frequency=-431.3 cm-1=T charge=0 spin=1 pbc="F F F"
C        2.55403442       0.37553299      -1.66699557
C        2.34321051      -0.37981192      -0.54393842
O        2.63645161      -1.61619105      -0.38203756
C        1.68731887       0.10829316       0.82434967
C        1.98139880      -0.36025250       2.08829185
N        1.29401983       1.43547128       0.64128877
N        0.30962877       2.08774194       0.52995153
C       -1.25653912       0.89638221       0.47933003
C       -1.99948293       1.26514217       1.63465379
C       -1.71281586       1.10203014      -1.00263242
C       -2.82045080       0.18643571      -1.34041115
C       -2.25423252      -0.93841959      -1.50154411
C       -0.82530194      -0.66542152      -1.25672102
O       -0.68731642       0.58761034      -1.72988292
C       -0.62810763      -0.41388266       0.21701631
C       -0.67094447      -1.46365888       1.20066831
N       -0.70247192      -2.34446111       1.97306270
H        2.90814622      -0.25889125      -2.44146137
H        1.62418689       0.85506227      -1.93577943
H        3.27756619       1.12669364      -1.42693584
H        2.98260803      -0.08948046       2.36381071
H        1.28187322       0.01695591       2.80269622
H        1.91223793      -1.41612328       2.01452340
H       -2.98083921       0.83322997       1.59089067
H       -1.50462004       0.92679690       2.52249776
H       -2.08746274       2.33172180       1.64532281
H       -1.85267068       2.16853093      -1.21200897
H       -3.89251114       0.43902807      -1.35753700
H       -2.70142801      -1.92762103      -1.69278171
H       -0.08736585      -1.34029417      -1.69944706
30
Properties=species:S:1:pos:R:3 Generated=T by=T autodE=T on:=T 2022-05-28.=T E=-780.008311 Ha.=T Imaginary=T frequency=-431.3 cm-1=T charge=0 spin=1 pbc="F F F"
C        2.55454101       0.37874391      -1.67037949
C        2.33427850      -0.41856053      -0.49380876
O        2.63936233      -1.62516339      -0.38296324
C        1.67652834       0.13772575       0.77321025
C        1.98228786      -0.36240283       2.09165318
N        1.29275747       1.44217910       0.64118451
N        0.33588718       2.11226515       0.53108419
C       -1.25335763       0.86051720       0.45196228
C       -2.00083622       1.26586334       1.63665664
C       -1.72048753       1.13974637      -1.00197217
C       -2.84347547       0.19318845      -1.33953378
C       -2.26285096      -0.96099406      -1.50500481
C       -0.80033698      -0.69144867      -1.26300302
O       -0.67063244       0.60287137      -1.75310366
C       -0.62729476      -0.42048767       0.23607234
C       -0.67141220      -1.46648832       1.20219308
N       -0.70301912      -2.34559957       1.97384544
H        2.91559816      -0.25576109      -2.46757131
H        1.62201834       0.87096533      -1.95450400
H        3.28981406       1.14642400      -1.43920683
H        2.99627632      -0.09195957       2.38067437
H        1.27826880       0.01512394       2.82472389
H        1.91642014      -1.43997074       2.03605107
H       -2.99903746       0.83306636       1.60331956
H       -1.50755376       0.92789200       2.54245374
H       -2.09684125       2.34708919       1.65849501
H       -1.86565856       2.20223486      -1.21282326
H       -3.90859903       0.44616260      -1.35751133
H       -2.70549628      -1.94435647      -1.69607532
H       -0.06902886      -1.37071600      -1.70787855
30
Properties=species:S:1:pos:R:3 Generated=T by=T autodE=T on:=T 2022-05-28.=T E=-780.008311 Ha.=T Imaginary=T frequency=-431.3 cm-1=T charge=0 spin=1 pbc="F F F"
C        2.55538000       0.38288000      -1.67514000
C        2.32731000      -0.45421000      -0.45074000
O        2.64318000      -1.63671000      -0.38414000
C        1.66833000       0.16363000       0.72891000
C        1.98340000      -0.36516000       2.09648000
N        1.29121000       1.45097000       0.64106000
N        0.36062000       2.13873000       0.53252000
C       -1.24898000       0.82625000       0.42812000
C       -2.00262000       1.26691000       1.63937000
C       -1.72627000       1.17606000      -1.00236000
C       -2.86848000       0.20059000      -1.33894000
C       -2.27188000      -0.98531000      -1.50882000
C       -0.77509000      -0.71610000      -1.27088000
O       -0.65439000       0.61792000      -1.77994000
C       -0.62746000      -0.42776000       0.25577000
C       -0.67194000      -1.47062000       1.20444000
N       -0.70379000      -2.34730000       1.97503000
H        2.92225000      -0.25225000      -2.49134000
H        1.62408000       0.88578000      -1.97224000
H        3.30055000       1.16380000      -1.45043000
H        3.00903000      -0.09453000       2.39685000
H        1.27526000       0.01302000       2.84565000
H        1.92034000      -1.46019000       2.05580000
H       -3.01864000       0.83330000       1.61704000
H       -1.51079000       0.92951000       2.56339000
H       -2.10583000       2.36179000       1.67130000
H       -1.87955000       2.23972000      -1.21393000
H       -3.92769000       0.45440000      -1.35753000
H       -2.71049000      -1.96409000      -1.69997000
H       -0.04893000      -1.40288000      -1.71709000
30
Properties=species:S:1:pos:R:3 Generated=T by=T autodE=T on:=T 2022-05-28.=T E=-780.008311 Ha.=T Imaginary=T frequency=-431.3 cm-1=T charge=0 spin=1 pbc="F F F"
C        2.55621899       0.38701609      -1.67990051
C        2.32034150      -0.48985947      -0.40767124
O        2.64699767      -1.64825661      -0.38531676
C        1.66013166       0.18953425       0.68460975
C        1.98451214      -0.36791717       2.10130682
N        1.28966253       1.45976090       0.64093549
N        0.38535282       2.16519485       0.53395581
C       -1.24460237       0.79198280       0.40427772
C       -2.00440378       1.26795666       1.64208336
C       -1.73205247       1.21237363      -1.00274783
C       -2.89348453       0.20799155      -1.33834622
C       -2.28090904      -1.00962594      -1.51263519
C       -0.74984302      -0.74075133      -1.27875698
O       -0.63814756       0.63296863      -1.80677634
C       -0.62762524      -0.43503233       0.27546766
C       -0.67246780      -1.47475168       1.20668692
N       -0.70456088      -2.34900043       1.97621456
H        2.92890184      -0.24873891      -2.51510869
H        1.62614166       0.90059467      -1.98997600
H        3.31128594       1.18117600      -1.46165317
H        3.02178368      -0.09710043       2.41302563
H        1.27225120       0.01091606       2.86657611
H        1.92425986      -1.48040926       2.07554893
H       -3.03824254       0.83353364       1.63076044
H       -1.51402624       0.93112800       2.58432626
H       -2.11481875       2.37649081       1.68410499
H       -1.89344144       2.27720514      -1.21503674
H       -3.94678097       0.46263740      -1.35754867
H       -2.71548372      -1.98382353      -1.70386468
H       -0.02883114      -1.43504400      -1.72630145
30
Properties=species:S:1:pos:R:3 Generated=T by=T autodE=T on:=T 2022-05-28.=T E=-780.008311 Ha.=T Imaginary=T frequency=-431.3 cm-1=T charge=0 spin=1 pbc="F F F"
C        2.55757394       0.39219135      -1.68651177
C        2.31549170      -0.52230778      -0.37254864
O        2.65182757      -1.66263080      -0.38671862
C        1.65532083       0.21155797       0.64816442
C        1.98584012      -0.37132224       2.10814608
N        1.28783850       1.47090853       0.64076794
N        0.40751576       2.19377001       0.53564428
C       -1.23952470       0.76120549       0.38598927
C       -2.00669946       1.26942197       1.64565505
C       -1.73579453       1.24687945      -1.00423646
C       -2.92027150       0.21591713      -1.33828664
C       -2.29020678      -1.03531741      -1.51682850
C       -0.72431756      -0.76434423      -1.28891099
O       -0.62383428       0.64730405      -1.83721644
C       -0.62921569      -0.44293523       0.29506642
C       -0.67300728      -1.48063268       1.20990999
N       -0.70561426      -2.35146914       1.97795475
H        2.93474504      -0.24495883      -2.53643451
H        1.63349259       0.91439681      -2.00682101
H        3.32060747       1.19623463      -1.47180846
H        3.03343987      -0.09967751       2.42825244
H        1.26989311       0.00860368       2.88612080
H        1.92799105      -1.49734127       2.09382819
H       -3.05873036       0.83420139       1.64546192
H       -1.51753070       0.93328041       2.60571621
H       -2.12329137       2.39025905       1.69636146
H       -1.90785004       2.31775870      -1.21634930
H       -3.96879572       0.47185983      -1.35762822
H       -2.72144182      -2.00642444      -1.70833705
H       -0.00733152      -1.46823887      -1.73616261
30
Properties=species:S:1:pos:R:3 Generated=T by=T autodE=T on:=T 2022-05-28.=T E=-780.008311 Ha.=T Imaginary=T frequency=-431.3 cm-1=T charge=0 spin=1 pbc="F F F"
C        2.55960093       0.39829180      -1.69522022
C        2.31233389      -0.55274715      -0.34386241
O        2.65761956      -1.67959263      -0.38833974
C        1.65371586       0.23053391       0.61794177
C        1.98732567      -0.37526216       2.11729829
N        1.28587546       1.48427202       0.64055512
N        0.42674979       2.22453859       0.53750210
C       -1.23430006       0.73493495       0.37293383
C       -2.00955519       1.27137809       1.65015577
C       -1.73775976       1.27925054      -1.00683259
C       -2.94803127       0.22395991      -1.33892387
C       -2.29974246      -1.06148543      -1.52133085
C       -0.69883318      -0.78720126      -1.30169497
O       -0.61323160       0.66052507      -1.87004607
C       -0.63238363      -0.45126200       0.31347670
C       -0.67351178      -1.48861476       1.21426493
N       -0.70699018      -2.35491703       1.98041249
H        2.94007191      -0.24090699      -2.55625581
H        1.64632886       0.92777228      -2.02337528
H        3.32903068       1.20974887      -1.48130810
H        3.04442062      -0.10228383       2.44300750
H        1.26805598       0.00611394       2.90477803
H        1.93172737      -1.51224602       2.11166810
H       -3.07955529       0.83527042       1.66071273
H       -1.52132066       0.93594664       2.62746314
H       -2.13138771       2.40327039       1.70821623
H       -1.92190858       2.35932270      -1.21768372
H       -3.99278948       0.48159759      -1.35777561
H       -2.72819674      -2.03091475      -1.71318321
H        0.01476098      -1.50114371      -1.74631428
