12
Properties=species:S:1:pos:R:3:forces:R:3 pbc="F F F"
C        0.71375701      -0.06369853       0.03585307  
H        1.75821733       1.85975659      -0.07487434  
F       -1.23360597       0.20797053       0.14114916  
Cl       2.80518340      -0.50972253      -0.27564720  
C        0.74993684       1.42369923      -0.01251731  
H        0.42770868      -0.57774745      -0.87365564  
H        0.21529147       1.84694398       0.85054583  
C        0.55216963      -0.60344321       1.07632879  
N        0.48049020      -1.31201272       2.52933598  
N        0.06179408       1.92168681      -1.11494163  
O       -0.60168876       3.14458689      -1.04317168  
O        0.15056615       1.31466041      -2.33034501  
12
Properties=species:S:1:pos:R:3:forces:R:3 pbc="F F F"
C        0.59870943      -0.02241836       0.08311281  
H        1.58598489       1.88101635       0.30639319  
F       -1.18434133      -0.16338524       0.03323421  
Cl       2.44083194      -0.52493947      -0.69549373  
C        0.60152974       1.47419150       0.09034013  
H        0.30979653      -0.58333688      -0.83063265  
H       -0.11892523       1.84054608       0.81513497  
C        0.72237149      -0.64975158       1.37454017  
N        0.82682730      -1.09944573       2.42333871  
N        0.19222185       2.02598087      -1.24416070  
O       -0.07869494       3.20168880      -1.25790490  
O        0.18350838       1.27253364      -2.18984217  
12
Properties=species:S:1:pos:R:3:forces:R:3 pbc="F F F"
C        0.29930885       0.00248932       0.00891967  
H        1.75661702       1.79136639      -0.07620925  
F       -1.08094676       0.10176812       0.11807536  
Cl       2.84613697      -0.57789816      -0.20240918  
C        0.71505178       1.47221049      -0.01475615  
H        0.49792008      -0.56092428      -0.91060710  
H        0.23175895       1.90429220       0.85393254  
C        0.72187536      -0.69772255       1.17842378  
N        0.47971910      -1.30705409       2.52707897  
N        0.03208586       2.03321533      -1.22695675  
O       -0.53238500       3.09220941      -1.08900349  
O        0.11267781       1.39872778      -2.25842832  
