12
Properties=species:S:1:pos:R:3:forces:R:3 pbc="F F F"
C        0.71375701      -0.06369853       0.03585307       2.81501555       0.04936273      -0.13257687
H        1.75821733       1.85975659      -0.07487434      11.90140580       8.33363647       4.89981632
F       -1.23360597       0.20797053       0.14114916      -3.89754092      -7.78139073       6.60501510
Cl       2.80518340      -0.50972253      -0.27564720       1.94815510     -11.55484167      -0.38690050
C        0.74993684       1.42369923      -0.01251731      -6.76572503      -0.30773100      -4.76146048
H        0.42770868      -0.57774745      -0.87365564       0.73215093       1.02229176       0.87662254
H        0.21529147       1.84694398       0.85054583      -1.17245052      -1.10960751      -1.84979940
C        0.55216963      -0.60344321       1.07632879      -2.30551299       1.18243753      -0.83531891
N        0.48049020      -1.31201272       2.52933598      -1.21446709       0.90994513      -1.62861294
N        0.06179408       1.92168681      -1.11494163      -2.51419805       9.75351941      -2.71035207
O       -0.60168876       3.14458689      -1.04317168       0.32782522      -0.83508939      -0.26049022
O        0.15056615       1.31466041      -2.33034501       0.14534038       0.33746751       0.18405783
12
Properties=species:S:1:pos:R:3:forces:R:3 pbc="F F F"
C        2.93787452      -0.45364147      -0.28972679       2.81501555       0.04936273      -0.13257687
H        1.69952549       1.70875750      -0.08423715      11.90140580       8.33363647       4.89981632
F       -1.28026506       0.37236508      -0.05905636      -3.89754092      -7.78139073       6.60501510
Cl       1.51630905       0.14990730      -0.05370257       1.94815510     -11.55484167      -0.38690050
C        1.12373854       1.54561344      -0.33148053      -6.76572503      -0.30773100      -4.76146048
H        0.31474017      -0.64189283      -0.97108269       0.73215093       1.02229176       0.87662254
H        0.10179424       1.94192006       0.99395977      -1.17245052      -1.10960751      -1.84979940
C       -0.29237512      -0.48703947       1.06464096      -2.30551299       1.18243753      -0.83531891
N        0.64670064      -1.51014645       2.89029753      -1.21446709       0.90994513      -1.62861294
N       -0.10139119       1.22888460      -0.40059065      -2.51419805       9.75351941      -2.71035207
O       -0.74187660       3.48947205      -1.13994132       0.32782522      -0.83508939      -0.26049022
O        0.15504573       1.30848013      -2.71102018       0.14534038       0.33746751       0.18405783
12
Properties=species:S:1:pos:R:3:forces:R:3 pbc="F F F"
C        0.29930885       0.00248932       0.00891967       2.81501555       0.04936273      -0.13257687
H        1.75661702       1.79136639      -0.07620925      11.90140580       8.33363647       4.89981632
F       -1.08094676       0.10176812       0.11807536      -3.89754092      -7.78139073       6.60501510
Cl       2.84613697      -0.57789816      -0.20240918       1.94815510     -11.55484167      -0.38690050
C        0.71505178       1.47221049      -0.01475615      -6.76572503      -0.30773100      -4.76146048
H        0.49792008      -0.56092428      -0.91060710       0.73215093       1.02229176       0.87662254
H        0.23175895       1.90429220       0.85393254      -1.17245052      -1.10960751      -1.84979940
C        0.72187536      -0.69772255       1.17842378      -2.30551299       1.18243753      -0.83531891
N        0.47971910      -1.30705409       2.52707897      -1.21446709       0.90994513      -1.62861294
N        0.03208586       2.03321533      -1.22695675      -2.51419805       9.75351941      -2.71035207
O       -0.53238500       3.09220941      -1.08900349       0.32782522      -0.83508939      -0.26049022
O        0.11267781       1.39872778      -2.25842832       0.14534038       0.33746751       0.18405783
