12
Properties=species:S:1:pos:R:3:forces:R:3 pbc="F F F"
C        0.71375701      -0.06369853       0.03585307      54.72740927     -37.36779284      61.34928632
H        1.75821733       1.85975659      -0.07487434      -2.74792841       0.64217699      -0.68413152
F       -1.23360597       0.20797053       0.14114916      -2.15426809       2.36332823       0.31137340
Cl       2.80518340      -0.50972253      -0.27564720      -1.56678068       1.11254804      -0.90115340
C        0.74993684       1.42369923      -0.01251731      79.51041378     -35.56935057      98.13730498
H        0.42770868      -0.57774745      -0.87365564      -1.69113112      -0.14832652       1.19598587
H        0.21529147       1.84694398       0.85054583       0.00928191      -2.03738147      -1.75589527
C        0.55216963      -0.60344321       1.07632879     -50.72464914      32.07401772     -55.39350862
N        0.48049020      -1.31201272       2.52933598       1.03396341       3.72215915      -7.99994388
N        0.06179408       1.92168681      -1.11494163     -78.49754126      40.34415761     -98.86577324
O       -0.60168876       3.14458689      -1.04317168       1.05847436      -3.35479637       1.78974416
O        0.15056615       1.31466041      -2.33034501       1.04274028      -1.78073910       2.81672635
12
Properties=species:S:1:pos:R:3:forces:R:3 pbc="F F F"
C        0.29734526      -0.01178743       0.03395642      54.72740927     -37.36779284      61.34928632
H        1.78419140       1.87973011      -0.06706651      -2.74792841       0.64217699      -0.68413152
F       -1.26126033       0.22459385       0.13419017      -2.15426809       2.36332823       0.31137340
Cl       2.81227553      -0.50537222      -0.28758688      -1.56678068       1.11254804      -0.90115340
C       -0.21050708       1.90315783      -1.30812072      79.51041378     -35.56935057      98.13730498
H        0.42122314      -0.58666930      -0.89469987      -1.69113112      -0.14832652       1.19598587
H        0.20431376       1.85138097       0.86803751       0.00928191      -2.03738147      -1.75589527
C        0.99702982      -0.61483581       1.10530601     -50.72464914      32.07401772     -55.39350862
N        0.48084094      -1.31517968       2.53085872       1.03396341       3.72215915      -7.99994388
N        1.02864089       1.34326266       0.20731864     -78.49754126      40.34415761     -98.86577324
O       -0.61960379       3.16241789      -1.05372473       1.05847436      -3.35479637       1.78974416
O        0.14533068       1.32198110      -2.36040885       1.04274028      -1.78073910       2.81672635
12
Properties=species:S:1:pos:R:3:forces:R:3 pbc="F F F"
C        0.29930885       0.00248932       0.00891967      54.72740927     -37.36779284      61.34928632
H        1.75661702       1.79136639      -0.07620925      -2.74792841       0.64217699      -0.68413152
F       -1.08094676       0.10176812       0.11807536      -2.15426809       2.36332823       0.31137340
Cl       2.84613697      -0.57789816      -0.20240918      -1.56678068       1.11254804      -0.90115340
C        0.71505178       1.47221049      -0.01475615      79.51041378     -35.56935057      98.13730498
H        0.49792008      -0.56092428      -0.91060710      -1.69113112      -0.14832652       1.19598587
H        0.23175895       1.90429220       0.85393254       0.00928191      -2.03738147      -1.75589527
C        0.72187536      -0.69772255       1.17842378     -50.72464914      32.07401772     -55.39350862
N        0.47971910      -1.30705409       2.52707897       1.03396341       3.72215915      -7.99994388
N        0.03208586       2.03321533      -1.22695675     -78.49754126      40.34415761     -98.86577324
O       -0.53238500       3.09220941      -1.08900349       1.05847436      -3.35479637       1.78974416
O        0.11267781       1.39872778      -2.25842832       1.04274028      -1.78073910       2.81672635
