12
Properties=species:S:1:pos:R:3:forces:R:3 pbc="F F F"
C        0.71375701      -0.06369853       0.03585307      87.63158029       4.93789431     -31.68144043
H        1.75821733       1.85975659      -0.07487434      -1.45551981      -1.05986452      -0.09500198
F       -1.23360597       0.20797053       0.14114916      -5.63193064      -0.18697046       3.83602324
Cl       2.80518340      -0.50972253      -0.27564720      -2.72467443       0.80086950       0.60332931
C        0.74993684       1.42369923      -0.01251731      12.87829827      -5.55844670      23.01334075
H        0.42770868      -0.57774745      -0.87365564      -0.64326605       0.48091714       6.69092992
H        0.21529147       1.84694398       0.85054583       0.64462266      -2.01205144      -1.72341986
C        0.55216963      -0.60344321       1.07632879     -80.20196795      -4.84404194      23.36364589
N        0.48049020      -1.31201272       2.52933598       0.68523350       2.89853030      -6.48550922
N        0.06179408       1.92168681      -1.11494163     -18.40500880      13.04781075     -31.24835718
O       -0.60168876       3.14458689      -1.04317168       4.62930897      -9.24710306       3.65299852
O        0.15056615       1.31466041      -2.33034501       2.59333116       0.74245746      10.07345709
12
Properties=species:S:1:pos:R:3:forces:R:3 pbc="F F F"
C       -0.14389578      -0.37190302       0.84443021      87.63158029       4.93789431     -31.68144043
H        1.78939320       1.84646778      -0.07689491      -1.45551981      -1.05986452      -0.09500198
F       -0.95416840       0.13852987       0.06603023      -5.63193064      -0.18697046       3.83602324
Cl       2.88338905      -0.55744622      -0.25432722      -2.72467443       0.80086950       0.60332931
C        0.55436698       1.51279827      -0.33217512      12.87829827      -5.55844670      23.01334075
H        0.48161310      -0.58119945      -1.02316271      -0.64326605       0.48091714       6.69092992
H        0.21398507       1.91554739       0.88428529       0.64462266      -2.01205144      -1.72341986
C        1.04404269      -0.26882543       0.36282041     -80.20196795      -4.84404194      23.36364589
N        0.45491769      -1.41658629       2.76241848       0.68523350       2.89853030      -6.48550922
N        0.35718071       1.76652521      -0.66054776     -18.40500880      13.04781075     -31.24835718
O       -0.68233142       3.33968370      -1.13894882       4.62930897      -9.24710306       3.65299852
O        0.08132703       1.32908814      -2.52586797       2.59333116       0.74245746      10.07345709
12
Properties=species:S:1:pos:R:3:forces:R:3 pbc="F F F"
C        0.29930885       0.00248932       0.00891967      87.63158029       4.93789431     -31.68144043
H        1.75661702       1.79136639      -0.07620925      -1.45551981      -1.05986452      -0.09500198
F       -1.08094676       0.10176812       0.11807536      -5.63193064      -0.18697046       3.83602324
Cl       2.84613697      -0.57789816      -0.20240918      -2.72467443       0.80086950       0.60332931
C        0.71505178       1.47221049      -0.01475615      12.87829827      -5.55844670      23.01334075
H        0.49792008      -0.56092428      -0.91060710      -0.64326605       0.48091714       6.69092992
H        0.23175895       1.90429220       0.85393254       0.64462266      -2.01205144      -1.72341986
C        0.72187536      -0.69772255       1.17842378     -80.20196795      -4.84404194      23.36364589
N        0.47971910      -1.30705409       2.52707897       0.68523350       2.89853030      -6.48550922
N        0.03208586       2.03321533      -1.22695675     -18.40500880      13.04781075     -31.24835718
O       -0.53238500       3.09220941      -1.08900349       4.62930897      -9.24710306       3.65299852
O        0.11267781       1.39872778      -2.25842832       2.59333116       0.74245746      10.07345709
