12
Properties=species:S:1:pos:R:3:forces:R:3 pbc="F F F"
C        0.71375701      -0.06369853       0.03585307      -2.70210514      -2.31382077       1.84350439
H        1.75821733       1.85975659      -0.07487434      -1.42888171      -1.32847297      -0.25011011
F       -1.23360597       0.20797053       0.14114916       1.71046656       1.08742846      -0.72243133
Cl       2.80518340      -0.50972253      -0.27564720       1.33923555      -0.01858325      -1.04596769
C        0.74993684       1.42369923      -0.01251731      -6.69572209       7.46519275       1.06079650
H        0.42770868      -0.57774745      -0.87365564       0.27984744       3.07036774       1.33557564
H        0.21529147       1.84694398       0.85054583       0.58610420      -1.19631108      -1.63463148
C        0.55216963      -0.60344321       1.07632879       8.09090831       1.13770783      -1.60650866
N        0.48049020      -1.31201272       2.52933598      -0.20774494       0.17118869      -0.50112070
N        0.06179408       1.92168681      -1.11494163      -7.43113514      -0.70020066       2.36260345
O       -0.60168876       3.14458689      -1.04317168       6.47034857      -7.70332374      -1.68818603
O        0.15056615       1.31466041      -2.33034501      -0.01132205       0.32882763       0.84647594
12
Properties=species:S:1:pos:R:3:forces:R:3 pbc="F F F"
C        0.51853017       0.69678847      -0.29726682      -2.70210514      -2.31382077       1.84350439
H        2.00837269       2.05227157      -0.05786506      -1.42888171      -1.32847297      -0.25011011
F       -1.44788402       0.16777542       0.01731207       1.71046656       1.08742846      -0.72243133
Cl       2.81838076      -0.48230708      -0.31663798       1.33923555      -0.01858325      -1.04596769
C       -0.11656727       2.87525121      -1.45043889      -6.69572209       7.46519275       1.06079650
H        0.36122303      -0.79642490      -1.18126615       0.27984744       3.07036774       1.33557564
H        0.02686359       2.02744160       1.16118062       0.58610420      -1.19631108      -1.63463148
C        0.37086932      -0.65935993       1.13713363       8.09090831       1.13770783      -1.60650866
N        0.46141912      -1.72463247       3.36432546      -0.20774494       0.17118869      -0.50112070
N        1.90741368      -0.62579995       0.90511561      -7.43113514      -0.70020066       2.36260345
O       -1.02851413       3.96150526      -1.20865622       6.47034857      -7.70332374      -1.68818603
O        0.19971337       1.16017095      -3.16487644      -0.01132205       0.32882763       0.84647594
12
Properties=species:S:1:pos:R:3:forces:R:3 pbc="F F F"
C        0.29930885       0.00248932       0.00891967      -2.70210514      -2.31382077       1.84350439
H        1.75661702       1.79136639      -0.07620925      -1.42888171      -1.32847297      -0.25011011
F       -1.08094676       0.10176812       0.11807536       1.71046656       1.08742846      -0.72243133
Cl       2.84613697      -0.57789816      -0.20240918       1.33923555      -0.01858325      -1.04596769
C        0.71505178       1.47221049      -0.01475615      -6.69572209       7.46519275       1.06079650
H        0.49792008      -0.56092428      -0.91060710       0.27984744       3.07036774       1.33557564
H        0.23175895       1.90429220       0.85393254       0.58610420      -1.19631108      -1.63463148
C        0.72187536      -0.69772255       1.17842378       8.09090831       1.13770783      -1.60650866
N        0.47971910      -1.30705409       2.52707897      -0.20774494       0.17118869      -0.50112070
N        0.03208586       2.03321533      -1.22695675      -7.43113514      -0.70020066       2.36260345
O       -0.53238500       3.09220941      -1.08900349       6.47034857      -7.70332374      -1.68818603
O        0.11267781       1.39872778      -2.25842832      -0.01132205       0.32882763       0.84647594
